         Total SCF energy =    -74.653754521972
@ Step       Energy      Delta E   Gmax     Grms     Xrms     Xmax   Walltime
@ ---- ---------------- -------- -------- -------- -------- -------- --------
@    0     -74.65375452  0.0D+00  0.04782  0.04646  0.00000  0.00000      0.3
         Total SCF energy =    -74.666243323218
         Total SCF energy =    -74.666852985132
@    1     -74.66685299 -1.3D-02  0.01741  0.01666  0.09743  0.20192      0.6
         Total SCF energy =    -74.669587680905
         Total SCF energy =    -74.669738041047
@    2     -74.66973804 -2.9D-03  0.00106  0.00093  0.04579  0.09559      0.9
         Total SCF energy =    -74.669743063581
         Total SCF energy =    -74.669743223795
@    3     -74.66974322 -5.2D-06  0.00002  0.00002  0.00244  0.00474      1.1
         Total SCF energy =    -74.669743224896
         Total SCF energy =    -74.669743224896
@    4     -74.66974322 -1.1D-09  0.00000  0.00000  0.00002  0.00006      1.2
@    4     -74.66974322 -1.1D-09  0.00000  0.00000  0.00002  0.00006      1.2

 Output coordinates in angstroms (scale by  1.889725989 to convert to a.u.)

  No.       Tag          Charge          X              Y              Z
 ---- ---------------- ---------- -------------- -------------- --------------
    1 O                    8.0000     0.00000000     0.00000000    -0.06582212
    2 H                    1.0000     0.84521365     0.00000000     0.52788581
    3 H                    1.0000    -0.84521365     0.00000000     0.52788581

 Total times  cpu:        1.3s     wall:        1.3s
